ITEM: TIMESTEP
0
ITEM: NUMBER OF ATOMS
1425
ITEM: BOX BOUNDS pp pp pp
-14.1423 14.1423
-14.1423 14.1423
-14.1423 14.1423
ITEM: ATOMS id type xs ys zs
285 1 0.0774566 0.000359561 0.145288
329 1 0.0490806 0.10629 0.131491
370 1 0.106383 0.13699 0.0521823
404 1 0.148635 0.0910014 0.147457
1048 2 0.126254 0.0386749 0.0692485
1138 2 0.037983 0.0304835 0.0681037
22 1 0.235734 0.11412 0.158677
271 1 0.255257 0.00567378 0.0236992
419 1 0.219882 0.00497057 0.128373
589 1 0.207249 0.159303 0.0698192
600 1 0.317297 0.157143 0.0833817
947 2 0.200648 0.0705514 0.0633616
992 2 0.28457 0.0743025 0.0898386
263 1 0.424053 0.0157945 0.0642833
820 2 0.470607 0.12171 0.14624
1021 2 0.384125 0.0833492 0.119364
1040 2 0.380238 0.162847 0.158093
1125 2 0.361959 0.0900009 0.0400074
1414 3 0.42041 0.154244 0.0837855
358 1 0.663746 0.154722 0.126196
412 1 0.565049 0.041638 0.151202
455 1 0.595658 0.00387244 0.0552988
542 1 0.504692 0.0679754 0.0747215
547 1 0.522644 0.155233 0.0644989
657 1 0.566941 0.151251 0.154442
928 2 0.615794 0.148464 0.00752851
1206 2 0.657473 0.0543015 0.113951
1328 2 0.60337 0.0989443 0.0721473
341 1 0.704749 0.0987884 0.0424268
622 1 0.762106 0.113715 0.131739
852 2 0.806426 0.0799448 0.050569
1243 2 0.683676 0.00143047 0.0533907
1362 3 0.756011 0.0207693 0.0915834
107 1 0.833786 0.0301257 0.154801
154 1 0.992581 0.108837 0.0444247
330 1 0.895174 0.0681896 0.0787884
356 1 0.967236 0.0365996 0.140269
458 1 0.853308 0.157863 0.100702
837 2 0.965534 0.0240192 0.0272089
916 2 0.949755 0.12861 0.129345
125 1 0.00530821 0.274964 0.0234595
668 1 0.104325 0.249111 0.0568078
698 1 0.0256059 0.206089 0.13208
734 2 0.0320345 0.189307 0.0416429
867 2 0.135437 0.191298 0.131942
1065 2 0.0470056 0.297784 0.110136
1285 2 0.144541 0.294315 0.126483
96 1 0.257309 0.220486 0.000975092
446 1 0.181034 0.297622 4.20725e-05
518 1 0.329886 0.33299 0.141744
809 2 0.229647 0.306545 0.122483
988 2 0.195584 0.246919 0.0784076
1234 2 0.26007 0.308209 0.0459336
1270 2 0.219204 0.210088 0.154668
1410 3 0.283391 0.244028 0.104685
52 1 0.357947 0.242629 0.0339988
402 1 0.385778 0.247873 0.113474
508 1 0.479706 0.226678 0.132576
972 2 0.446202 0.298616 0.0571719
1230 2 0.448755 0.214782 0.0318082
1373 3 0.446514 0.319027 0.155135
304 1 0.666352 0.264903 0.120739
732 2 0.526752 0.248638 0.0539949
872 2 0.604465 0.205947 0.0641443
1096 2 0.573556 0.246828 0.125287
1244 2 0.517233 0.316239 0.0988998
1389 3 0.597833 0.29919 0.0552649
32 1 0.695974 0.312093 0.0333812
241 1 0.833333 0.25042 0.160756
428 1 0.695697 0.206247 0.0408754
652 1 0.773153 0.292472 0.0903735
702 1 0.786335 0.195082 0.0545985
1104 2 0.740601 0.211694 0.137919
78 1 0.952207 0.290701 0.124251
439 1 0.940483 0.197673 0.0643554
546 1 0.870761 0.257281 0.0637338
30 1 0.118588 0.444233 0.136347
234 1 0.00252046 0.384458 0.118348
372 1 0.0712804 0.358836 0.0431148
550 1 0.129578 0.474681 0.0301706
752 2 0.0953066 0.355974 0.150622
799 2 0.0481469 0.449504 0.0696767
1346 2 0.0375138 0.469276 0.15157
421 1 0.168624 0.368646 0.0711517
450 1 0.287465 0.455091 0.0414496
910 2 0.202897 0.446582 0.0917754
1027 2 0.262829 0.48676 0.124865
1325 2 0.261988 0.380914 0.0949587
215 1 0.448192 0.471703 0.082105
555 1 0.340516 0.348008 0.0396624
743 2 0.482051 0.387726 0.0434316
893 2 0.345573 0.423012 0.109672
1039 2 0.389453 0.423287 0.035984
1176 2 0.417439 0.368936 0.0951571
180 1 0.629374 0.471 0.0287797
202 1 0.603393 0.437206 0.127071
387 1 0.509787 0.400862 0.142954
807 2 0.641765 0.38104 0.0619194
894 2 0.560419 0.375385 0.0574513
941 2 0.534572 0.46103 0.0646669
1115 2 0.603191 0.340817 0.128191
169 1 0.703504 0.357705 0.135903
192 1 0.686057 0.463926 0.142745
255 1 0.817782 0.498882 0.0659259
264 1 0.815071 0.387151 0.0777942
710 1 0.73139 0.428457 0.062373
1251 2 0.767392 0.496861 0.137559
102 1 0.930041 0.338675 0.0418413
143 1 0.953081 0.484562 0.119112
380 1 0.902098 0.487832 0.0304142
517 1 0.850248 0.450903 0.161887
776 2 0.872532 0.335587 0.125998
888 2 0.905492 0.409771 0.093588
1013 2 0.975019 0.428383 0.0400103
436 1 0.0494744 0.626883 0.135433
448 1 0.117428 0.57234 0.00712334
497 1 0.0379993 0.638109 0.0285492
548 1 0.0178684 0.521876 0.0258407
1108 2 0.127296 0.613005 0.0894663
1300 2 0.0779558 0.535162 0.097703
10 1 0.207462 0.624927 0.0428669
336 1 0.179204 0.535975 0.106
390 1 0.280202 0.571672 0.0887592
468 1 0.1976 0.619665 0.156742
821 2 0.220952 0.520225 0.0281971
1084 2 0.292455 0.657142 0.016047
178 1 0.479977 0.649912 0.0400608
275 1 0.441123 0.570738 0.11517
460 1 0.454632 0.56024 0.0138351
603 1 0.363698 0.602036 0.0454358
673 1 0.35352 0.596857 0.166355
1419 3 0.359682 0.513593 0.0899496
187 1 0.535351 0.615089 0.136606
298 1 0.615985 0.541246 0.11111
591 1 0.522557 0.508766 0.162206
817 2 0.572086 0.661258 0.0580088
963 2 0.628846 0.639033 0.11617
1106 2 0.529633 0.545779 0.0723156
1239 2 0.551704 0.592614 0.00629532
1400 3 0.633404 0.594084 0.0387548
128 1 0.717116 0.539386 0.0597037
152 1 0.718698 0.637509 0.103703
1128 2 0.787185 0.622061 0.0493694
1374 3 0.801529 0.578381 0.128252
362 1 0.944124 0.581624 0.00865668
608 1 0.93929 0.650407 0.0788089
850 2 0.864136 0.662185 0.0310347
964 2 0.89453 0.564188 0.0960385
1003 2 0.854978 0.638338 0.119204
1066 2 0.984224 0.568447 0.0993654
1212 2 0.851621 0.577627 0.0251944
80 1 0.117593 0.795958 0.0199615
201 1 0.0908155 0.764686 0.129614
368 1 0.104568 0.701867 0.0730594
430 1 0.0112238 0.821745 0.0882865
431 1 0.140156 0.688943 0.00130566
1360 3 0.0302314 0.75692 0.0228319
188 1 0.298152 0.807569 0.0551447
400 1 0.289253 0.670268 0.121055
715 2 0.253997 0.764784 0.12812
765 2 0.191184 0.699762 0.113745
857 2 0.331141 0.721487 0.0612569
946 2 0.183216 0.774337 0.079597
968 2 0.242475 0.716081 0.0511902
185 1 0.406481 0.674176 0.111112
196 1 0.369793 0.769951 0.126347
346 1 0.384285 0.685269 0.00256359
1079 2 0.462161 0.786208 0.140945
1248 2 0.427706 0.830392 0.0694561
1378 3 0.445802 0.748049 0.0616026
18 1 0.511666 0.70414 0.127544
284 1 0.666179 0.787947 0.0347095
529 1 0.537924 0.782232 0.0707228
793 2 0.58847 0.822138 0.00318549
1024 2 0.612819 0.726803 0.0922636
1105 2 0.598147 0.782704 0.152036
25 1 0.67081 0.683642 0.0312807
254 1 0.779858 0.682337 0.166573
366 1 0.823546 0.724565 0.0813944
471 1 0.773048 0.82224 0.0551557
770 2 0.683269 0.721459 0.133542
926 2 0.755363 0.776377 0.142234
1213 2 0.674104 0.807932 0.125319
1250 2 0.736068 0.733908 0.0691393
270 1 0.899614 0.712175 0.163075
562 1 0.998724 0.716131 0.105527
1129 2 0.95333 0.797139 0.0108165
1158 2 0.866527 0.820716 0.0301851
1381 3 0.849394 0.815862 0.117471
1418 3 0.914923 0.761655 0.077418
37 1 0.0584889 0.881827 0.0248882
67 1 0.153175 0.925431 0.127063
847 2 0.155451 0.887823 0.0376019
898 2 0.0592883 0.903436 0.122558
902 2 0.0901328 0.964254 0.0548226
1114 2 0.114971 0.846431 0.098117
258 1 0.307413 0.847182 0.142636
301 1 0.255651 0.916916 0.0679729
679 1 0.331643 0.995853 0.0910629
714 2 0.173214 0.969053 0.0495897
859 2 0.212089 0.844523 0.101781
1227 2 0.218445 0.83945 0.0177652
1301 2 0.233517 0.902235 0.161338
131 1 0.358601 0.898749 0.0648631
655 1 0.460167 0.917987 0.0552843
689 1 0.419048 0.94157 0.14987
896 2 0.409951 0.851819 0.148609
16 1 0.506134 0.86937 0.124383
349 1 0.561632 0.908432 0.0279093
488 1 0.660939 0.895247 0.0595719
976 2 0.5126 0.974999 0.103585
1056 2 0.597191 0.847791 0.0999643
1061 2 0.649486 0.886109 0.160241
1263 2 0.586644 0.932632 0.122448
1355 2 0.508616 0.993973 0.0178755
420 1 0.741515 0.875249 0.136761
541 1 0.748052 0.931109 0.0523852
861 2 0.83119 0.997932 0.0438035
1120 2 0.677014 0.96258 0.128835
1220 2 0.764578 0.963667 0.153207
127 1 0.834491 0.919187 0.111441
367 1 0.834539 0.910939 0.00414043
445 1 0.99211 0.948966 0.0817936
464 1 0.922516 0.94596 0.00103661
706 1 0.923764 0.872869 0.0782475
811 2 0.981118 0.880589 0.153501
1277 2 0.902372 0.977573 0.0892687
302 1 0.00842476 0.142673 0.300024
551 1 0.0855295 0.0845279 0.231645
744 2 0.0203886 0.0244003 0.213155
1002 2 0.124729 0.0255553 0.296568
1127 2 0.0329417 0.0481843 0.296898
1366 3 0.101668 0.147845 0.307237
179 1 0.222223 0.00328272 0.301692
469 1 0.190506 0.0895374 0.252369
737 2 0.267267 0.0324962 0.201759
1009 2 0.18323 0.162052 0.307382
1273 2 0.323251 0.102021 0.179804
1289 2 0.256487 0.16362 0.236926
1384 3 0.290291 0.0863211 0.260983
461 1 0.458164 0.029123 0.167427
1067 2 0.448594 0.048032 0.262007
1143 2 0.357005 0.0297269 0.179185
1183 2 0.408225 0.0963323 0.20548
1202 2 0.369309 0.0634832 0.267661
1216 2 0.43237 0.126734 0.287858
1241 2 0.350059 0.130832 0.319881
1364 3 0.349909 0.157539 0.24254
377 1 0.594826 0.160414 0.276158
449 1 0.517903 0.10478 0.229749
472 1 0.639923 0.0868971 0.202826
670 1 0.594684 0.0518623 0.289698
709 1 0.50166 0.0237833 0.330183
933 2 0.529459 0.0116827 0.236821
500 1 0.695271 0.0821938 0.296719
915 2 0.682575 0.0112015 0.24459
935 2 0.749088 0.0835705 0.215253
1029 2 0.672741 0.166278 0.329602
1111 2 0.779647 0.136043 0.26225
1341 2 0.713021 0.0296244 0.166869
406 1 0.853675 0.148531 0.310835
687 1 0.869785 0.123883 0.190754
951 2 0.834026 0.0710647 0.255235
1071 2 0.926857 0.158474 0.256872
1118 2 0.904657 0.043847 0.215175
1136 2 0.995488 0.142176 0.199957
1145 2 0.969807 0.082215 0.244527
1388 3 0.909785 0.0727932 0.304392
73 1 0.117466 0.235211 0.266718
373 1 0.02239 0.219234 0.248275
479 1 0.0123845 0.303379 0.200581
594 1 0.0450027 0.318182 0.304186
829 2 0.109722 0.323568 0.230077
833 2 0.0914639 0.255608 0.175953
1351 2 0.0858944 0.16816 0.199755
8 1 0.272452 0.291781 0.321362
225 1 0.268965 0.178003 0.329696
293 1 0.265353 0.276134 0.204419
775 2 0.313546 0.231218 0.271161
1005 2 0.21482 0.229509 0.266289
1210 2 0.303421 0.192181 0.173192
1235 2 0.171962 0.269375 0.197123
1339 2 0.169473 0.171574 0.214234
1363 3 0.189955 0.319871 0.269174
11 1 0.448938 0.182784 0.215109
126 1 0.492944 0.211608 0.301322
494 1 0.374028 0.255377 0.209427
1082 2 0.454396 0.30667 0.29695
1141 2 0.3682 0.29662 0.298283
1186 2 0.469839 0.273176 0.224885
1280 2 0.393134 0.209814 0.295054
1 1 0.66266 0.253148 0.296299
310 1 0.550423 0.306031 0.193945
512 1 0.628316 0.229946 0.202623
808 2 0.647389 0.322516 0.203308
931 2 0.535881 0.212642 0.216815
1155 2 0.57129 0.260063 0.280923
76 1 0.733215 0.275606 0.210433
89 1 0.76442 0.224098 0.296622
162 1 0.769831 0.323864 0.319455
467 1 0.699718 0.169919 0.227698
849 2 0.789007 0.179367 0.193524
989 2 0.824367 0.294786 0.2474
57 1 0.933887 0.255888 0.266767
109 1 0.928705 0.209199 0.173856
452 1 0.853955 0.256064 0.331372
832 2 0.894648 0.307013 0.202664
1087 2 0.851772 0.210288 0.241768
33 1 0.124103 0.389969 0.31553
386 1 0.0395634 0.395824 0.218462
499 1 0.0898934 0.48484 0.251241
1116 2 0.0267496 0.415111 0.310531
1199 2 0.131867 0.406013 0.227528
1292 2 0.00750658 0.496539 0.309649
171 1 0.19936 0.368341 0.178536
282 1 0.222484 0.410601 0.275559
507 1 0.298881 0.353489 0.25261
700 1 0.194286 0.476052 0.197746
960 2 0.302352 0.451224 0.24784
1171 2 0.275771 0.418182 0.171238
1354 2 0.317856 0.465675 0.324559
110 1 0.490369 0.444806 0.244727
639 1 0.388809 0.39723 0.303402
685 1 0.339769 0.492596 0.173197
720 2 0.433527 0.488684 0.171476
800 2 0.352824 0.403075 0.200896
925 2 0.403141 0.499582 0.312965
1006 2 0.397759 0.464404 0.241579
1076 2 0.478108 0.357681 0.228647
1146 2 0.398439 0.341401 0.228785
1264 2 0.424729 0.406959 0.171669
104 1 0.6635 0.344899 0.289728
297 1 0.548892 0.347219 0.291715
527 1 0.59369 0.40046 0.217352
844 2 0.648235 0.43654 0.295035
999 2 0.568633 0.455927 0.28416
586 1 0.705793 0.489185 0.239683
792 2 0.757482 0.363081 0.238553
1038 2 0.799128 0.341987 0.16729
1100 2 0.790317 0.444252 0.250262
1156 2 0.730737 0.417614 0.308103
1219 2 0.7656 0.421572 0.172248
1240 2 0.825577 0.398463 0.312942
1287 2 0.688334 0.401489 0.216431
427 1 0.974828 0.472856 0.226016
501 1 0.873052 0.484153 0.266761
534 1 0.92902 0.390014 0.190997
536 1 0.924568 0.429494 0.302553
785 2 0.885474 0.340255 0.29023
880 2 0.96437 0.349528 0.269743
1028 2 0.843563 0.380246 0.230095
392 1 0.143193 0.526122 0.326306
491 1 0.0200566 0.54791 0.189499
768 2 0.0915445 0.606983 0.222981
918 2 0.114243 0.541839 0.172111
1023 2 0.0463314 0.565406 0.281447
1062 2 0.108945 0.614807 0.312453
1092 2 0.0149414 0.630991 0.23792
98 1 0.240419 0.512215 0.28773
129 1 0.262749 0.55769 0.195355
245 1 0.167153 0.569027 0.24533
1007 2 0.256639 0.605327 0.277396
1268 2 0.271341 0.653211 0.208428
68 1 0.404546 0.599876 0.32214
482 1 0.429891 0.557067 0.231376
932 2 0.499548 0.620085 0.291624
1030 2 0.451789 0.633059 0.183093
1045 2 0.337189 0.624332 0.258006
1175 2 0.422333 0.659257 0.254574
1387 3 0.338577 0.53379 0.261828
77 1 0.594804 0.649237 0.274742
345 1 0.606409 0.505045 0.213495
1050 2 0.592122 0.555642 0.28414
1189 2 0.611719 0.59698 0.1951
1253 2 0.505777 0.528857 0.283155
1258 2 0.528142 0.583651 0.224303
207 1 0.798574 0.532892 0.216501
280 1 0.703115 0.566597 0.16904
719 2 0.748486 0.560197 0.292686
801 2 0.681892 0.655074 0.208765
937 2 0.766794 0.642151 0.316426
1207 2 0.671089 0.582586 0.257184
1274 2 0.753952 0.617126 0.23363
157 1 0.840333 0.582939 0.302022
209 1 0.851902 0.628341 0.220219
575 1 0.898172 0.542418 0.182412
601 1 0.946535 0.564619 0.2749
630 1 0.948868 0.624263 0.175296
38 1 0.05346 0.829211 0.18994
112 1 0.0697424 0.69071 0.278838
316 1 0.0215818 0.719419 0.201549
351 1 0.128541 0.759629 0.237653
631 1 0.121493 0.680181 0.176113
1041 2 0.0519528 0.786044 0.278305
150 1 0.169792 0.815458 0.174087
239 1 0.198332 0.789188 0.295694
553 1 0.270798 0.722721 0.268073
563 1 0.182808 0.667059 0.259875
746 2 0.306715 0.759225 0.192052
908 2 0.2167 0.726153 0.19049
1043 2 0.323758 0.79882 0.27828
120 1 0.458477 0.733445 0.296274
170 1 0.399598 0.786376 0.2262
724 2 0.425952 0.830107 0.307415
782 2 0.363015 0.711488 0.281576
994 2 0.44312 0.716625 0.190161
1406 3 0.356523 0.690727 0.19913
47 1 0.528535 0.822006 0.308014
121 1 0.60084 0.695618 0.182838
567 1 0.614625 0.767598 0.252917
617 1 0.517694 0.769916 0.212439
974 2 0.51438 0.675748 0.228656
1046 2 0.548492 0.724242 0.301175
108 1 0.697335 0.821255 0.215758
333 1 0.6976 0.81252 0.324583
391 1 0.689287 0.706838 0.297707
774 2 0.776994 0.698414 0.257693
824 2 0.828881 0.766741 0.179185
943 2 0.773914 0.780132 0.247364
1266 2 0.708043 0.732207 0.209644
81 1 0.952122 0.790095 0.177586
292 1 0.941006 0.680356 0.267374
296 1 0.854867 0.688977 0.32099
459 1 0.866298 0.802576 0.268508
514 1 0.965896 0.767569 0.290039
1190 2 0.854431 0.721282 0.239155
43 1 0.0596998 0.960413 0.274265
322 1 0.108028 0.859988 0.278406
359 1 0.152448 0.996517 0.212933
1196 2 0.143297 0.94311 0.301195
1231 2 0.0952914 0.915128 0.200868
1369 3 0.0130669 0.944338 0.189286
498 1 0.312664 0.948419 0.175381
645 1 0.25435 0.833735 0.227641
797 2 0.176162 0.898653 0.22434
818 2 0.207543 0.898624 0.301409
983 2 0.312135 0.995784 0.269136
995 2 0.286045 0.912487 0.267619
1086 2 0.233408 0.958071 0.224223
1275 2 0.269219 0.852432 0.326169
106 1 0.381996 0.914834 0.301189
307 1 0.36508 0.878392 0.227025
332 1 0.470413 0.866737 0.228058
940 2 0.389216 0.983918 0.233035
1390 3 0.462718 0.959114 0.254593
166 1 0.640013 0.875878 0.275687
348 1 0.572972 0.860794 0.20411
463 1 0.551943 0.928789 0.289471
614 1 0.611233 0.967409 0.204058
780 2 0.633956 0.970388 0.299802
874 2 0.519095 0.943799 0.184471
14 1 0.784511 0.874187 0.271438
308 1 0.709534 0.925956 0.225076
640 1 0.775568 0.999395 0.242433
659 1 0.721494 0.984118 0.331178
1315 2 0.824082 0.930796 0.206477
1353 2 0.804351 0.842779 0.188102
1422 3 0.812423 0.950219 0.327715
123 1 0.911991 0.95847 0.178676
261 1 0.990339 0.868981 0.255179
309 1 0.896094 0.864413 0.190963
413 1 0.958944 0.983735 0.272142
620 1 0.887363 0.908949 0.281455
773 2 0.865848 0.998091 0.276414
250 1 0.108975 0.100407 0.446035
265 1 0.0323057 0.164253 0.399198
324 1 0.0255698 0.154676 0.498222
593 1 0.159981 0.0784518 0.357131
632 1 0.0938507 0.00297513 0.381202
805 2 0.0647291 0.0890873 0.361233
990 2 0.0215535 0.0722707 0.436798
1001 2 0.00167442 0.0199784 0.363575
1226 2 0.101332 0.0236303 0.497416
87 1 0.222409 0.127099 0.418315
295 1 0.32425 0.11603 0.402996
623 1 0.274262 0.0551765 0.486237
855 2 0.248071 0.0344531 0.395291
860 2 0.316286 0.0417257 0.343247
1037 2 0.175522 0.0330503 0.446184
1337 2 0.250586 0.0908678 0.334323
134 1 0.371103 0.0466658 0.434522
290 1 0.404892 0.157381 0.473677
666 1 0.47225 0.091402 0.426468
848 2 0.413601 0.080228 0.353569
26 1 0.645439 0.019563 0.385131
35 1 0.517998 0.116907 0.338572
557 1 0.573362 0.0812063 0.435868
945 2 0.596964 0.00136824 0.476898
1140 2 0.61373 0.113113 0.355792
1336 2 0.663065 0.0655539 0.469873
88 1 0.810573 0.0604557 0.48752
100 1 0.795211 0.0551436 0.335782
142 1 0.737837 0.0237519 0.435467
532 1 0.725668 0.147203 0.486136
789 2 0.754305 0.140202 0.338953
794 2 0.824625 0.00143011 0.400897
1149 2 0.77507 0.109588 0.41361
1371 3 0.695263 0.102889 0.393717
42 1 0.870454 0.0915876 0.40198
60 1 0.834656 0.15588 0.493979
172 1 0.936603 0.141263 0.453908
1117 2 0.9445 0.0420552 0.440698
1172 2 0.966856 0.0915827 0.370629
197 1 0.0586703 0.236182 0.353104
648 1 0.0888784 0.247754 0.459339
672 1 0.142243 0.181614 0.394881
766 2 0.109523 0.319091 0.381118
1329 2 0.0260372 0.309074 0.414805
164 1 0.275106 0.310252 0.416795
384 1 0.180176 0.295711 0.438983
475 1 0.298981 0.178944 0.47529
489 1 0.200641 0.209648 0.486719
674 1 0.175943 0.26124 0.34607
923 2 0.241828 0.223095 0.404863
160 1 0.339668 0.229137 0.376477
167 1 0.36335 0.267917 0.466929
353 1 0.424709 0.168159 0.376201
814 2 0.450267 0.306968 0.439426
1169 2 0.453848 0.227184 0.442513
1343 2 0.427983 0.262754 0.36443
272 1 0.634527 0.167065 0.428747
525 1 0.530918 0.184598 0.416432
568 1 0.524648 0.266206 0.497107
704 1 0.522986 0.275169 0.374791
1047 2 0.598702 0.215031 0.353344
1081 2 0.608417 0.309479 0.36268
1386 3 0.609475 0.26116 0.432516
71 1 0.695879 0.296533 0.387904
92 1 0.793663 0.287356 0.415946
113 1 0.724167 0.205917 0.394477
260 1 0.822976 0.18627 0.396599
671 1 0.785687 0.240053 0.488938
1331 2 0.688213 0.251907 0.471138
79 1 0.888819 0.238614 0.438561
582 1 0.960009 0.268561 0.358109
651 1 0.932869 0.178483 0.358743
664 1 0.937047 0.321685 0.46676
1359 3 0.988823 0.235054 0.451654
237 1 0.142717 0.408948 0.430184
815 2 0.0855493 0.341901 0.460297
819 2 0.0575704 0.387418 0.389833
841 2 0.0578967 0.462166 0.446866
924 2 0.0772685 0.463954 0.360285
1187 2 0.00628471 0.389795 0.454188
61 1 0.203777 0.44872 0.363029
683 1 0.298565 0.463952 0.415463
900 2 0.214424 0.46743 0.461698
1051 2 0.237442 0.391525 0.43536
1098 2 0.2028 0.353539 0.362677
1392 3 0.290266 0.387578 0.35248
145 1 0.473239 0.365322 0.364136
159 1 0.372198 0.337047 0.381959
221 1 0.479531 0.460217 0.349478
486 1 0.469169 0.497453 0.450407
490 1 0.346281 0.374479 0.461266
566 1 0.454821 0.402471 0.449847
627 1 0.373182 0.470795 0.482927
1153 2 0.3856 0.436362 0.386947
355 1 0.577968 0.398235 0.359553
411 1 0.550354 0.347145 0.447426
642 1 0.579486 0.499604 0.358232
796 2 0.646919 0.47563 0.422203
1073 2 0.544357 0.44087 0.430298
1075 2 0.617813 0.416614 0.473364
1303 2 0.644421 0.343677 0.447395
53 1 0.79106 0.486142 0.337033
153 1 0.767083 0.391792 0.399741
385 1 0.806286 0.468833 0.4569
496 1 0.671098 0.399803 0.382185
953 2 0.714969 0.434811 0.472285
959 2 0.731317 0.333839 0.473208
1151 2 0.727405 0.480267 0.40056
262 1 0.979995 0.46379 0.396945
299 1 0.870493 0.431304 0.390971
305 1 0.86816 0.336414 0.382626
365 1 0.835705 0.36575 0.474817
395 1 0.966801 0.365825 0.366515
843 2 0.907428 0.497997 0.453804
1004 2 0.924042 0.410763 0.463184
9 1 0.023603 0.555268 0.446151
58 1 0.131588 0.518536 0.427711
414 1 0.101494 0.628892 0.405523
618 1 0.00950061 0.634687 0.339434
862 2 0.0605395 0.549216 0.36235
1137 2 0.0128434 0.66038 0.430927
1326 2 0.109044 0.579393 0.490394
240 1 0.199347 0.620056 0.354456
442 1 0.309287 0.560547 0.345005
537 1 0.231146 0.537459 0.395918
558 1 0.194178 0.60412 0.461988
572 1 0.306488 0.665263 0.343668
669 1 0.272037 0.5318 0.497735
682 1 0.30192 0.611474 0.427215
12 1 0.492492 0.663148 0.374709
15 1 0.489252 0.562145 0.369557
149 1 0.473023 0.602338 0.460782
311 1 0.372564 0.568374 0.483812
705 1 0.387554 0.532137 0.396552
831 2 0.398135 0.631025 0.411679
228 1 0.568402 0.532726 0.445518
447 1 0.572625 0.633326 0.439794
1200 2 0.65751 0.561199 0.415747
1322 2 0.58224 0.595552 0.357293
289 1 0.674341 0.516892 0.334015
361 1 0.756821 0.575286 0.389445
438 1 0.728839 0.531346 0.478999
544 1 0.675532 0.618406 0.341491
577 1 0.754026 0.633437 0.476325
1306 2 0.67388 0.650881 0.430279
24 1 0.834775 0.557398 0.461587
227 1 0.887141 0.524997 0.367753
530 1 0.842174 0.634244 0.398733
611 1 0.934129 0.594747 0.44185
899 2 0.861991 0.65671 0.486148
1091 2 0.917872 0.617532 0.346768
1348 2 0.973852 0.552281 0.363063
214 1 0.0585013 0.730691 0.484824
354 1 0.0435578 0.73245 0.374273
884 2 0.114362 0.785724 0.33942
977 2 0.0931645 0.802464 0.420717
1161 2 0.0346525 0.831704 0.344015
1164 2 0.137806 0.701266 0.339965
1218 2 0.132008 0.715058 0.419831
56 1 0.23008 0.694966 0.439283
480 1 0.268787 0.796569 0.469461
540 1 0.281056 0.773752 0.369079
561 1 0.167041 0.768405 0.492319
1276 2 0.218318 0.710783 0.347544
1403 3 0.183654 0.780445 0.397705
485 1 0.395677 0.667646 0.498766
581 1 0.336766 0.711619 0.433278
842 2 0.445132 0.810569 0.455771
982 2 0.361776 0.800504 0.419794
1014 2 0.452094 0.788119 0.372347
1286 2 0.434056 0.726932 0.429702
1321 2 0.374652 0.765816 0.342852
1334 2 0.403105 0.690781 0.356946
376 1 0.529334 0.751788 0.399327
493 1 0.619814 0.805094 0.43173
703 1 0.6018 0.692792 0.368567
952 2 0.60985 0.785034 0.341853
1293 2 0.501899 0.691221 0.478784
1404 3 0.591388 0.721211 0.469607
31 1 0.684265 0.741763 0.403564
405 1 0.780549 0.750649 0.340341
647 1 0.764018 0.812567 0.432049
771 2 0.754831 0.676666 0.390118
955 2 0.754473 0.723932 0.458856
161 1 0.936402 0.701511 0.38426
274 1 0.977187 0.766283 0.470715
570 1 0.841106 0.738004 0.432875
628 1 0.900353 0.825331 0.436482
866 2 0.943076 0.682689 0.474113
1085 2 0.885612 0.772457 0.355329
1124 2 0.974338 0.788984 0.383255
212 1 0.146204 0.868464 0.463124
276 1 0.00187806 0.925476 0.350055
429 1 0.0114289 0.859337 0.442234
694 1 0.0895699 0.898345 0.381421
697 1 0.0179236 0.973597 0.446214
787 2 0.120226 0.957201 0.457831
944 2 0.166202 0.853392 0.357673
130 1 0.291138 0.943932 0.354006
306 1 0.212103 0.95951 0.489065
415 1 0.18459 0.955455 0.386001
434 1 0.232948 0.871701 0.416206
560 1 0.307651 0.969559 0.440395
1057 2 0.324302 0.871832 0.417215
99 1 0.460127 0.989996 0.417343
399 1 0.396602 0.996531 0.333809
637 1 0.402891 0.969772 0.499208
644 1 0.473048 0.910745 0.345723
871 2 0.347958 0.843193 0.343089
958 2 0.381559 0.878235 0.478016
1095 2 0.453369 0.900902 0.448357
1182 2 0.38492 0.933195 0.401902
1192 2 0.413935 0.856582 0.391564
141 1 0.55613 0.980694 0.384664
327 1 0.5251 0.8542 0.41507
343 1 0.52291 0.934946 0.494407
583 1 0.604947 0.920081 0.431503
786 2 0.658562 0.922386 0.360101
962 2 0.662683 0.869682 0.486221
1237 2 0.596047 0.866152 0.354459
1323 2 0.576571 0.858826 0.495991
318 1 0.822635 0.841533 0.359584
574 1 0.772049 0.925609 0.417158
966 2 0.733405 0.892615 0.341932
1019 2 0.743632 0.87653 0.499326
1078 2 0.689127 0.863516 0.407645
1123 2 0.6886 0.944833 0.452254
251 1 0.911303 0.994927 0.363776
441 1 0.931973 0.856127 0.344165
598 1 0.840845 0.885759 0.479277
699 1 0.878021 0.980353 0.469995
1094 2 0.939869 0.91829 0.420179
1262 2 0.866243 0.915906 0.387436
55 1 0.0338503 0.133202 0.602258
146 1 0.0950245 0.073641 0.664089
830 2 0.0349488 0.0625558 0.524518
892 2 0.109482 0.0870692 0.565092
1054 2 0.0891545 0.0113826 0.582539
1080 2 0.0124909 0.0376104 0.605786
337 1 0.25773 0.0433824 0.589564
379 1 0.332229 0.125757 0.619609
711 1 0.191007 0.104056 0.515207
1044 2 0.265363 0.136599 0.557611
1269 2 0.179534 0.102655 0.611156
1330 2 0.171695 0.0210974 0.546713
344 1 0.426498 0.136833 0.575639
374 1 0.497277 0.0702204 0.586816
646 1 0.373566 0.0319154 0.577088
986 2 0.423456 0.0650438 0.644971
1103 2 0.422955 0.0691131 0.506675
1195 2 0.341385 0.103763 0.523624
90 1 0.503921 0.0284771 0.500665
181 1 0.581766 0.145505 0.598467
220 1 0.516649 0.144624 0.507527
580 1 0.58272 0.0416472 0.642011
1282 2 0.648434 0.0687196 0.584052
1297 2 0.581106 0.063334 0.538611
1298 2 0.65552 0.114515 0.654182
1415 3 0.637507 0.12373 0.519832
158 1 0.735137 0.0670551 0.551731
495 1 0.792325 0.0122827 0.623784
663 1 0.758055 0.108685 0.659316
749 2 0.688592 0.146499 0.586475
897 2 0.772581 0.15213 0.571754
949 2 0.828571 0.0909138 0.583268
1377 3 0.692959 0.0274479 0.64523
119 1 0.860793 0.15207 0.655245
243 1 0.869194 0.00572929 0.565016
266 1 0.9267 0.0707776 0.622659
745 2 0.963832 0.105865 0.545367
1068 2 0.897202 0.0749244 0.505577
1257 2 0.888822 0.140587 0.563261
1421 3 0.958893 0.0218565 0.524516
247 1 0.0374972 0.237703 0.555563
342 1 0.111927 0.189685 0.627481
403 1 0.126092 0.290234 0.642066
692 1 0.0166331 0.244958 0.642217
707 1 0.112738 0.167275 0.52323
875 2 0.088383 0.318509 0.55284
1163 2 0.0195994 0.313085 0.505991
1399 3 0.140755 0.254106 0.551053
136 1 0.311168 0.263569 0.636739
184 1 0.24413 0.175044 0.652879
484 1 0.22011 0.302605 0.585835
901 2 0.268189 0.268258 0.501727
904 2 0.327164 0.308671 0.546052
1259 2 0.260359 0.221868 0.566861
1327 2 0.190702 0.184397 0.579126
65 1 0.498902 0.312551 0.597994
105 1 0.349143 0.208125 0.556598
401 1 0.411021 0.20929 0.644339
828 2 0.435552 0.233313 0.524242
836 2 0.405507 0.279505 0.59077
211 1 0.501479 0.209796 0.582456
286 1 0.645685 0.214878 0.643314
396 1 0.590424 0.272644 0.594988
505 1 0.60673 0.209098 0.519867
1026 2 0.629158 0.298498 0.510195
19 1 0.826646 0.221941 0.583453
46 1 0.743756 0.206233 0.656256
522 1 0.782492 0.322504 0.552136
606 1 0.686568 0.309699 0.59197
636 1 0.71044 0.230304 0.555281
906 2 0.770396 0.287491 0.636309
44 1 0.952127 0.306672 0.580921
155 1 0.931534 0.217851 0.531113
969 2 0.8667 0.285141 0.525462
1033 2 0.911465 0.241743 0.631881
1077 2 0.950865 0.170447 0.604152
1368 3 0.856033 0.313247 0.616235
66 1 0.140795 0.389172 0.599425
86 1 0.0366653 0.350044 0.623944
186 1 0.150633 0.497352 0.615869
538 1 0.0713203 0.40666 0.520199
638 1 0.0391395 0.443427 0.596987
649 1 0.148757 0.479444 0.520142
29 1 0.168663 0.346414 0.511191
147 1 0.330589 0.437035 0.629537
762 2 0.214975 0.418565 0.540228
881 2 0.288469 0.437379 0.51215
889 2 0.249565 0.485822 0.576686
991 2 0.262982 0.350308 0.505319
1064 2 0.277179 0.37695 0.581685
1150 2 0.225222 0.42258 0.627098
1168 2 0.271658 0.34618 0.658133
1358 3 0.253277 0.498701 0.660703
45 1 0.449503 0.434493 0.545788
641 1 0.429124 0.474135 0.62062
684 1 0.424146 0.333955 0.524984
730 2 0.433281 0.377532 0.618086
742 2 0.35694 0.400683 0.55137
779 2 0.355717 0.343649 0.614204
473 1 0.54604 0.461288 0.523553
783 2 0.620816 0.440022 0.578246
790 2 0.51104 0.367953 0.523464
823 2 0.638421 0.492876 0.503885
1055 2 0.614128 0.368601 0.62797
1342 2 0.586823 0.35967 0.548064
1393 3 0.534576 0.405039 0.605118
1411 3 0.61805 0.464561 0.659403
94 1 0.679508 0.382149 0.534985
388 1 0.712455 0.482311 0.565442
590 1 0.782005 0.415356 0.549888
592 1 0.701491 0.410172 0.637814
1249 2 0.78258 0.460831 0.637171
1379 3 0.783494 0.366045 0.650652
364 1 0.876557 0.454052 0.537303
660 1 0.977566 0.476041 0.509038
863 2 0.97421 0.38252 0.532849
1052 2 0.857836 0.495838 0.620856
1162 2 0.945717 0.417185 0.599765
1254 2 0.85711 0.403308 0.620551
1338 2 0.887049 0.364454 0.551238
51 1 0.0214358 0.510284 0.638547
118 1 0.058951 0.518503 0.535991
217 1 0.0210607 0.632925 0.518177
474 1 0.0930591 0.594148 0.588454
738 2 0.0121211 0.607279 0.640806
1307 2 0.153529 0.618294 0.655566
506 1 0.185551 0.578071 0.554065
524 1 0.284847 0.628762 0.520543
763 2 0.213805 0.564804 0.645445
1083 2 0.283261 0.613908 0.661752
1203 2 0.278291 0.565274 0.589844
1299 2 0.230154 0.642233 0.605647
223 1 0.454239 0.535696 0.544528
230 1 0.374442 0.601929 0.576961
543 1 0.346872 0.539879 0.650539
971 2 0.345433 0.506393 0.563079
1049 2 0.46931 0.630146 0.55375
1252 2 0.46826 0.64605 0.636699
1402 3 0.449038 0.568197 0.637501
3 1 0.633041 0.535942 0.588325
133 1 0.623948 0.574313 0.665815
409 1 0.536098 0.509974 0.614932
481 1 0.647649 0.594276 0.50144
654 1 0.551512 0.570455 0.531144
778 2 0.543093 0.607586 0.617955
813 2 0.558909 0.660663 0.534609
882 2 0.625333 0.63444 0.582587
70 1 0.72374 0.589822 0.569288
371 1 0.784434 0.55813 0.642378
520 1 0.827283 0.595867 0.549909
798 2 0.80128 0.510084 0.553345
878 2 0.71352 0.620711 0.652972
911 2 0.701791 0.507686 0.65827
1242 2 0.802768 0.648887 0.617543
144 1 0.892701 0.590845 0.630025
723 2 0.92115 0.625066 0.534989
772 2 0.939015 0.504733 0.596296
810 2 0.95618 0.651017 0.605218
996 2 0.980326 0.571046 0.569497
1097 2 0.905711 0.545111 0.528304
177 1 0.119799 0.763723 0.574502
256 1 0.12329 0.666674 0.508723
565 1 0.0477032 0.695363 0.596534
691 1 0.0381729 0.802334 0.651467
984 2 0.075913 0.822563 0.506244
1035 2 0.149162 0.674385 0.597704
1154 2 0.0154643 0.776626 0.559956
4 1 0.308469 0.723147 0.535183
72 1 0.307156 0.821678 0.56888
721 2 0.187771 0.810221 0.629871
827 2 0.306878 0.670008 0.604893
903 2 0.264405 0.784167 0.640277
1053 2 0.228702 0.769777 0.561969
1278 2 0.213274 0.722053 0.626209
1309 2 0.211696 0.689645 0.536301
2 1 0.462236 0.730825 0.664836
39 1 0.372882 0.792633 0.508912
242 1 0.422972 0.796284 0.599356
759 2 0.446939 0.743984 0.518355
890 2 0.344891 0.745375 0.629152
1160 2 0.4936 0.704816 0.573201
1352 2 0.402741 0.697994 0.587304
23 1 0.525979 0.783494 0.502532
84 1 0.656367 0.776949 0.616737
95 1 0.633057 0.676517 0.663284
135 1 0.591178 0.732539 0.57723
726 2 0.626961 0.797163 0.523272
954 2 0.543798 0.69045 0.641254
979 2 0.506532 0.831886 0.661121
1148 2 0.515553 0.779612 0.597306
326 1 0.816456 0.805683 0.530967
338 1 0.713761 0.693339 0.600654
340 1 0.716464 0.784079 0.518558
552 1 0.798459 0.739765 0.638578
597 1 0.669687 0.693351 0.514042
629 1 0.797324 0.704438 0.538358
1232 2 0.744106 0.810421 0.60861
199 1 0.955636 0.740445 0.639051
462 1 0.922607 0.817847 0.541291