LAMMPS (29 Sep 2011)
units metal
boundary p p p
atom_style atomic
read_data JHW_t1_model.dat
  orthogonal box = (-14.1423 -14.1423 -14.1423) to (14.1423 14.1423 14.1423)
  1 by 1 by 1 processor grid
  1425 atoms
pair_style eam/alloy
pair_coeff * * ZrCuAl2011.eam.alloy Cu Al Zr

suffix on
compute 1 all voronoi/atom
ERROR: Invalid compute style (modify.cpp:814)
